
Predictions were generated on 12-Feb-2025 at 14:09:10 using OpenFAST, compiled as a 64-bit application using double precision at commit -128-NOTFOUND
 linked with  NWTC Subroutine Library; ElastoDyn; InflowWind; AeroDyn; ServoDyn

Description from the FAST input file: IEA 15 MW offshore reference model monopile configuration

Time	Wind1VelX	Wind1VelY	Wind1VelZ	BldPitch1	BldPitch2	BldPitch3	Azimuth	RotSpeed	RotAccel	LSSGagPxa	GenSpeed	GenAccel	HSShftTq	LSSGagMya	LSSGagMza	LSShftFxs	LSShftFys	LSShftFzs	LSShftMxs	LSSTipMys	LSSTipMzs	NacYaw	YawBrTAxp	YawBrTAyp	YawBrTAzp	IPDefl1	OoPDefl1	PtfmHeave	PtfmPitch	PtfmRoll	PtfmSurge	PtfmSway	PtfmYaw	B1N001TDx	B1N002TDx	B1N003TDx	B1N004TDx	B1N005TDx	B1N006TDx	B1N007TDx	B1N008TDx	B1N009TDx	B1N010TDx	B1N011TDx	B1N012TDx	B1N013TDx	B1N014TDx	B1N015TDx	B1N016TDx	B1N017TDx	B1N018TDx	B1N019TDx	B1N020TDx	B1N021TDx	B1N022TDx	B1N023TDx	B1N024TDx	B1N025TDx	B1N026TDx	B1N027TDx	B1N028TDx	B1N029TDx	B1N030TDx	B1N031TDx	B1N032TDx	B1N033TDx	B1N034TDx	B1N035TDx	B1N036TDx	B1N037TDx	B1N038TDx	B1N039TDx	B1N040TDx	B1N041TDx	B1N042TDx	B1N043TDx	B1N044TDx	B1N045TDx	B1N046TDx	B1N047TDx	B1N048TDx	B1N049TDx	B1N050TDx	B1N001TDy	B1N002TDy	B1N003TDy	B1N004TDy	B1N005TDy	B1N006TDy	B1N007TDy	B1N008TDy	B1N009TDy	B1N010TDy	B1N011TDy	B1N012TDy	B1N013TDy	B1N014TDy	B1N015TDy	B1N016TDy	B1N017TDy	B1N018TDy	B1N019TDy	B1N020TDy	B1N021TDy	B1N022TDy	B1N023TDy	B1N024TDy	B1N025TDy	B1N026TDy	B1N027TDy	B1N028TDy	B1N029TDy	B1N030TDy	B1N031TDy	B1N032TDy	B1N033TDy	B1N034TDy	B1N035TDy	B1N036TDy	B1N037TDy	B1N038TDy	B1N039TDy	B1N040TDy	B1N041TDy	B1N042TDy	B1N043TDy	B1N044TDy	B1N045TDy	B1N046TDy	B1N047TDy	B1N048TDy	B1N049TDy	B1N050TDy	B1N001RDz	B1N002RDz	B1N003RDz	B1N004RDz	B1N005RDz	B1N006RDz	B1N007RDz	B1N008RDz	B1N009RDz	B1N010RDz	B1N011RDz	B1N012RDz	B1N013RDz	B1N014RDz	B1N015RDz	B1N016RDz	B1N017RDz	B1N018RDz	B1N019RDz	B1N020RDz	B1N021RDz	B1N022RDz	B1N023RDz	B1N024RDz	B1N025RDz	B1N026RDz	B1N027RDz	B1N028RDz	B1N029RDz	B1N030RDz	B1N031RDz	B1N032RDz	B1N033RDz	B1N034RDz	B1N035RDz	B1N036RDz	B1N037RDz	B1N038RDz	B1N039RDz	B1N040RDz	B1N041RDz	B1N042RDz	B1N043RDz	B1N044RDz	B1N045RDz	B1N046RDz	B1N047RDz	B1N048RDz	B1N049RDz	B1N050RDz	TwN1Fdx	TwN1Fdy	TwN2Fdx	TwN2Fdy	TwN3Fdx	TwN3Fdy	TwN4Fdx	TwN4Fdy	TwN5Fdx	TwN5Fdy	TwN6Fdx	TwN6Fdy	TwN7Fdx	TwN7Fdy	TwN8Fdx	TwN8Fdy	TwN9Fdx	TwN9Fdy	RtVAvgxh	RtAeroMxh	GenPwr	GenTq	EstWndSpd	RefGenSpd
(s)	(m/s)	(m/s)	(m/s)	(deg)	(deg)	(deg)	(deg)	(rpm)	(deg/s^2)	(deg)	(rpm)	(deg/s^2)	(kN-m)	(kN-m)	(kN-m)	(kN)	(kN)	(kN)	(kN-m)	(kN-m)	(kN-m)	(deg)	(m/s^2)	(m/s^2)	(m/s^2)	(m)	(m)	(m)	(deg)	(deg)	(m)	(m)	(deg)	(m)	(m)	(m)	(m)	(m)	(m)	(m)	(m)	(m)	(m)	(m)	(m)	(m)	(m)	(m)	(m)	(m)	(m)	(m)	(m)	(m)	(m)	(m)	(m)	(m)	(m)	(m)	(m)	(m)	(m)	(m)	(m)	(m)	(m)	(m)	(m)	(m)	(m)	(m)	(m)	(m)	(m)	(m)	(m)	(m)	(m)	(m)	(m)	(m)	(m)	(m)	(m)	(m)	(m)	(m)	(m)	(m)	(m)	(m)	(m)	(m)	(m)	(m)	(m)	(m)	(m)	(m)	(m)	(m)	(m)	(m)	(m)	(m)	(m)	(m)	(m)	(m)	(m)	(m)	(m)	(m)	(m)	(m)	(m)	(m)	(m)	(m)	(m)	(m)	(m)	(m)	(m)	(m)	(m)	(m)	(m)	(m)	(m)	(m)	(m)	(deg)	(deg)	(deg)	(deg)	(deg)	(deg)	(deg)	(deg)	(deg)	(deg)	(deg)	(deg)	(deg)	(deg)	(deg)	(deg)	(deg)	(deg)	(deg)	(deg)	(deg)	(deg)	(deg)	(deg)	(deg)	(deg)	(deg)	(deg)	(deg)	(deg)	(deg)	(deg)	(deg)	(deg)	(deg)	(deg)	(deg)	(deg)	(deg)	(deg)	(deg)	(deg)	(deg)	(deg)	(deg)	(deg)	(deg)	(deg)	(deg)	(deg)	(N/m)	(N/m)	(N/m)	(N/m)	(N/m)	(N/m)	(N/m)	(N/m)	(N/m)	(N/m)	(N/m)	(N/m)	(N/m)	(N/m)	(N/m)	(N/m)	(N/m)	(N/m)	(m/s)	(N-m)	(kW)	(kN-m)	m/s	
    0.0000	 1.100E+01	-0.000E+00	 0.000E+00	 1.000E+00	 1.000E+00	 1.000E+00	 0.000E+00	 7.550E+00	 2.774E+00	 0.000E+00	 7.550E+00	-6.318E-03	-3.183E-12	-1.062E+03	 3.001E+03	 4.629E+02	-1.561E+00	-2.371E+03	-3.183E-12	-1.062E+03	 3.001E+03	 0.000E+00	-7.598E-01	-7.387E-03	 0.000E+00	 0.000E+00	 0.000E+00	 0.000E+00	 0.000E+00	 0.000E+00	 0.000E+00	 0.000E+00	 0.000E+00	 0.000E+00	 0.000E+00	 0.000E+00	 0.000E+00	 0.000E+00	 0.000E+00	 0.000E+00	 0.000E+00	 0.000E+00	 0.000E+00	 0.000E+00	 0.000E+00	 0.000E+00	 0.000E+00	 0.000E+00	 0.000E+00	 0.000E+00	 0.000E+00	 0.000E+00	 0.000E+00	 0.000E+00	 0.000E+00	 0.000E+00	 0.000E+00	 0.000E+00	 0.000E+00	 0.000E+00	 0.000E+00	 0.000E+00	 0.000E+00	 0.000E+00	 0.000E+00	 0.000E+00	 0.000E+00	 0.000E+00	 0.000E+00	 0.000E+00	 0.000E+00	 0.000E+00	 0.000E+00	 0.000E+00	 0.000E+00	 0.000E+00	 0.000E+00	 0.000E+00	 0.000E+00	 0.000E+00	 0.000E+00	 0.000E+00	 0.000E+00	 0.000E+00	 0.000E+00	 0.000E+00	 0.000E+00	 0.000E+00	 0.000E+00	 0.000E+00	 0.000E+00	 0.000E+00	 0.000E+00	 0.000E+00	 0.000E+00	 0.000E+00	 0.000E+00	 0.000E+00	 0.000E+00	 0.000E+00	 0.000E+00	 0.000E+00	 0.000E+00	 0.000E+00	 0.000E+00	 0.000E+00	 0.000E+00	 0.000E+00	 0.000E+00	 0.000E+00	 0.000E+00	 0.000E+00	 0.000E+00	 0.000E+00	 0.000E+00	 0.000E+00	 0.000E+00	 0.000E+00	 0.000E+00	 0.000E+00	 0.000E+00	 0.000E+00	 0.000E+00	 0.000E+00	 0.000E+00	 0.000E+00	 0.000E+00	 0.000E+00	 0.000E+00	 0.000E+00	 0.000E+00	 0.000E+00	 0.000E+00	 0.000E+00	 0.000E+00	 0.000E+00	 0.000E+00	 0.000E+00	 0.000E+00	 0.000E+00	 0.000E+00	 0.000E+00	 0.000E+00	 0.000E+00	 0.000E+00	 0.000E+00	 0.000E+00	 0.000E+00	 0.000E+00	 0.000E+00	 0.000E+00	 0.000E+00	 0.000E+00	 0.000E+00	 0.000E+00	 0.000E+00	 0.000E+00	 0.000E+00	 0.000E+00	 0.000E+00	 0.000E+00	 0.000E+00	 0.000E+00	 0.000E+00	 0.000E+00	 0.000E+00	 0.000E+00	 0.000E+00	 0.000E+00	 0.000E+00	 0.000E+00	 0.000E+00	 0.000E+00	 0.000E+00	 0.000E+00	 0.000E+00	 0.000E+00	 0.000E+00	 0.000E+00	 0.000E+00	 0.000E+00	 0.000E+00	 0.000E+00	 1.945E+02	 0.000E+00	 2.316E+02	 0.000E+00	 2.316E+02	 0.000E+00	 2.558E+02	 0.000E+00	 2.558E+02	 0.000E+00	 2.629E+02	 0.000E+00	 2.629E+02	 0.000E+00	 2.612E+02	 0.000E+00	 2.612E+02	 0.000E+00	 1.089E+01	 2.181E+07	 0.000E+00	 0.000E+00	 1.100E+01	 0.000E+00
